
#(C) 2018 by FIZ Karlsruhe - Leibniz Institute for Information Infrastructure.  All rights reserved.
data_82328-ICSD
_database_code_ICSD 82328
_audit_creation_date 1997-11-10
_chemical_name_systematic
'Zinc phyllo-pentaoxodivanadate hydrate (0.25/1/1) - sigma'
_chemical_formula_structural 'Zn0.25 (V2 O5) (H2 O)'
_chemical_formula_sum 'H2 O6 V2 Zn0.25'
_chemical_name_structure_type ZnxC2O5H2O
_exptl_crystal_density_diffrn 3.13
_publ_section_title

;
Synthesis and crystal structure of sigma-Zn0.25 V2 O5 . (H2 O) with a novel
type of V2 O5 layer
;
loop_
_citation_id
_citation_journal_full
_citation_year
_citation_journal_volume
_citation_page_first
_citation_page_last
_citation_journal_id_ASTM
primary 'Journal of Solid State Chemistry' 1996 126 65 73 JSSCBI
loop_
_publ_author_name
'Oka, Y.'
'Tamada, O.'
'Yao, T.'
'Yamamoto, N.'
_cell_length_a 10.614(2)
_cell_length_b 8.031(3)
_cell_length_c 10.7688(9)
_cell_angle_alpha 90.65(1)
_cell_angle_beta 91.14(1)
_cell_angle_gamma 90.09(2)
_cell_volume 917.7
_cell_formula_units_Z 8
_symmetry_space_group_name_H-M 'P -1'
_symmetry_Int_Tables_number 2
_refine_ls_R_factor_all 0.079
loop_
_symmetry_equiv_pos_site_id
_symmetry_equiv_pos_as_xyz
1 '-x, -y, -z'
2 'x, y, z'
loop_
_atom_type_symbol
_atom_type_oxidation_number
V4+ 4.75
Zn2+ 2
O2- -2
H1+ 1
loop_
_atom_site_label
_atom_site_type_symbol
_atom_site_symmetry_multiplicity
_atom_site_Wyckoff_symbol
_atom_site_fract_x
_atom_site_fract_y
_atom_site_fract_z
_atom_site_B_iso_or_equiv
_atom_site_occupancy
_atom_site_attached_hydrogens
V1 V4+ 2 i 0.7014(5) 0.7187(6) 0.1412(5) 0.67(9) 1. 0
V2 V4+ 2 i 0.6876(4) 0.3407(6) 0.1418(5) 0.61(9) 1. 0
V3 V4+ 2 i 0.9159(4) 0.0412(6) 0.1381(5) 0.47(8) 1. 0
V4 V4+ 2 i 0.4749(5) 0.0340(6) 0.1628(5) 0.43(8) 1. 0
V5 V4+ 2 i 0.2012(5) 0.7859(6) 0.1407(5) 0.64(9) 1. 0
V6 V4+ 2 i 0.1879(4) 0.1623(6) 0.1403(5) 0.59(8) 1. 0
V7 V4+ 2 i 0.4161(4) 0.4632(6) 0.1403(5) 0.47(8) 1. 0
V8 V4+ 2 i 0.9746(14) 0.4701(6) 0.1612(5) 0.46(8) 1. 0
Zn1 Zn2+ 1 g 0 0.5 0.5 1.51(8) 1. 0
Zn2 Zn2+ 1 f 0.5 0 0.5 1.48(8) 1. 0
O1 O2- 2 i 0.814(2) 0.522(2) 0.124(2) 0.3(3) 1. 0
O2 O2- 2 i 0.581(2) 0.540(2) 0.110(2) 0.8(3) 1. 0
O3 O2- 2 i 0.790(2) 0.194(2) 0.080(2) 1.0(3) 1. 0
O4 O2- 2 i 0.526(1) 0.240(2) 0.124(1) 0.3(2) 1. 0
O5 O2- 2 i 0.831(2) 0.868(2) 0.087(2) 1.0(3) 1. 0
O6 O2- 2 i 0.571(1) 0.894(2) 0.097(2) 0.7(3) 1. 0
O7 O2- 2 i 0.311(2) 0.986(2) 0.124(2) 0.3(3) 1. 0
O8 O2- 2 i 0.082(2) 0.965(2) 0.104(2) 0.7(3) 1. 0
O9 O2- 2 i 0.289(2) 0.310(2) 0.078(2) 0.9(3) 1. 0
O10 O2- 2 i 0.026(1) 0.263(2) 0.120(2) 1.0(3) 1. 0
O11 O2- 2 i 0.332(2) 0.635(2) 0.089(2) 1.1(3) 1. 0
O12 O2- 2 i 0.071(2) 0.609(2) 0.099(2) 1.1(3) 1. 0
O13 O2- 2 i 0.706(2) 0.738(2) 0.289(2) 1.4(4) 1. 0
O14 O2- 2 i 0.700(2) 0.320(2) 0.283(2) 2.0(4) 1. 0
O15 O2- 2 i 0.904(2) 0.042(2) 0.286(2) 1.5(4) 1. 0
O16 O2- 2 i 0.488(2) 0.021(2) 0.312(2) 0.9(3) 1. 0
O17 O2- 2 i 0.205(2) 0.768(2) 0.290(2) 1.6(4) 1. 0
O18 O2- 2 i 0.202(2) 0.189(2) 0.285(2) 1.4(4) 1. 0
O19 O2- 2 i 0.404(2) 0.465(2) 0.286(2) 1.0(3) 1. 0
O20 O2- 2 i 0.989(2) 0.488(2) 0.309(2) 1.2(4) 1. 0
O21 O2- 2 i 0.032(2) 0.759(3) 0.495(2) 3.5(5) 1. 0
O22 O2- 2 i 0.802(2) 0.538(3) 0.510(2) 2.4(4) 1. 0
O23 O2- 2 i 0.516(3) 0.264(3) 0.507(3) 4.4(6) 1. 0
O24 O2- 2 i 0.303(2) 0.022(2) 0.507(2) 2.2(4) 1. 0
#End of TTdata_82328-ICSD